# vtk DataFile Version 2.0
File written by Defmod
ASCII
DATASET UNSTRUCTURED_GRID
POINTS 7457 double
.000 -8.235 .000
.000 -100.000 .000
.000 -10.274 .000
.000 -12.314 .000
.000 -14.353 .000
.000 -16.392 .000
.000 -18.431 .000
.000 -20.470 .000
.000 -22.510 .000
.000 -24.549 .000
.000 -26.588 .000
.000 -28.627 .000
.000 -30.667 .000
.000 -32.706 .000
.000 -34.745 .000
.000 -36.784 .000
.000 -38.823 .000
.000 -40.863 .000
.000 -42.902 .000
.000 -44.941 .000
.000 -46.980 .000
.000 -49.020 .000
.000 -51.059 .000
.000 -53.098 .000
.000 -55.137 .000
.000 -57.176 .000
.000 -59.216 .000
.000 -61.255 .000
.000 -63.294 .000
.000 -65.333 .000
.000 -67.372 .000
.000 -69.412 .000
.000 -71.451 .000
.000 -73.490 .000
.000 -75.529 .000
.000 -77.569 .000
.000 -79.608 .000
.000 -81.647 .000
.000 -83.686 .000
.000 -85.725 .000
.000 -87.765 .000
.000 -89.804 .000
.000 -91.843 .000
.000 -93.882 .000
.000 -95.922 .000
.000 -97.961 .000
101.676 -15.077 .000
1.729 -8.176 .000
3.458 -8.146 .000
5.188 -8.139 .000
6.917 -8.130 .000
8.647 -8.115 .000
10.377 -8.125 .000
12.106 -8.152 .000
13.836 -8.169 .000
15.565 -8.205 .000
17.293 -8.274 .000
19.021 -8.350 .000
20.750 -8.415 .000
22.475 -8.540 .000
24.199 -8.680 .000
25.925 -8.785 .000
27.652 -8.874 .000
29.380 -8.967 .000
31.108 -9.043 .000
32.837 -9.079 .000
34.566 -9.104 .000
36.291 -9.230 .000
38.012 -9.396 .000
39.740 -9.473 .000
41.470 -9.463 .000
43.199 -9.506 .000
44.926 -9.603 .000
46.654 -9.678 .000
48.378 -9.810 .000
50.095 -10.020 .000
51.808 -10.257 .000
53.527 -10.449 .000
55.250 -10.603 .000
56.969 -10.793 .000
58.681 -11.040 .000
60.395 -11.269 .000
62.118 -11.427 .000
63.844 -11.526 .000
65.571 -11.624 .000
67.294 -11.778 .000
69.007 -12.018 .000
70.719 -12.258 .000
72.443 -12.405 .000
74.168 -12.530 .000
75.886 -12.723 .000
77.601 -12.951 .000
79.323 -13.117 .000
81.044 -13.290 .000
82.754 -13.544 .000
84.454 -13.864 .000
86.159 -14.156 .000
87.870 -14.411 .000
89.587 -14.613 .000
91.312 -14.737 .000
93.041 -14.774 .000
94.771 -14.745 .000
96.500 -14.730 .000
98.228 -14.808 .000
99.951 -14.961 .000
111.881 -16.137 .000
103.386 -15.150 .000
105.092 -15.287 .000
106.792 -15.484 .000
108.494 -15.667 .000
110.197 -15.839 .000
98.104 -40.000 .000
98.829 -38.744 .000
99.554 -37.488 .000
100.279 -36.232 .000
101.005 -34.976 .000
101.730 -33.720 .000
102.455 -32.464 .000
103.180 -31.208 .000
103.905 -29.952 .000
104.630 -28.696 .000
105.355 -27.441 .000
106.081 -26.185 .000
106.806 -24.929 .000
107.531 -23.673 .000
108.256 -22.417 .000
108.981 -21.161 .000
109.706 -19.905 .000
110.431 -18.649 .000
111.156 -17.393 .000
108.723 -40.000 .000
107.206 -40.000 .000
105.689 -40.000 .000
104.172 -40.000 .000
102.655 -40.000 .000
101.138 -40.000 .000
99.621 -40.000 .000
121.982 -17.034 .000
109.460 -38.724 .000
110.196 -37.448 .000
110.933 -36.172 .000
111.669 -34.896 .000
112.406 -33.621 .000
113.143 -32.345 .000
113.879 -31.069 .000
114.616 -29.793 .000
115.353 -28.517 .000
116.089 -27.241 .000
116.826 -25.965 .000
117.563 -24.689 .000
118.299 -23.413 .000
119.036 -22.137 .000
119.772 -20.862 .000
120.509 -19.586 .000
121.246 -18.310 .000
234.536 -13.872 .000
123.708 -17.201 .000
125.440 -17.263 .000
127.160 -17.057 .000
128.871 -16.781 .000
130.596 -16.613 .000
132.328 -16.527 .000
134.054 -16.361 .000
135.784 -16.273 .000
137.518 -16.288 .000
139.250 -16.220 .000
140.983 -16.157 .000
142.713 -16.044 .000
144.435 -15.846 .000
146.160 -15.674 .000
147.891 -15.579 .000
149.625 -15.556 .000
151.358 -15.550 .000
153.091 -15.500 .000
154.823 -15.421 .000
156.554 -15.312 .000
158.283 -15.187 .000
160.016 -15.129 .000
161.748 -15.185 .000
163.481 -15.227 .000
165.209 -15.100 .000
166.933 -14.908 .000
168.663 -14.809 .000
170.397 -14.808 .000
172.130 -14.783 .000
173.863 -14.733 .000
175.597 -14.701 .000
177.330 -14.703 .000
179.064 -14.694 .000
180.797 -14.629 .000
182.529 -14.549 .000
184.262 -14.497 .000
185.995 -14.461 .000
187.728 -14.434 .000
189.462 -14.423 .000
191.196 -14.424 .000
192.930 -14.412 .000
194.663 -14.368 .000
196.396 -14.319 .000
198.130 -14.295 .000
199.863 -14.270 .000
201.597 -14.243 .000
203.330 -14.221 .000
205.064 -14.206 .000
206.798 -14.193 .000
208.531 -14.172 .000
210.265 -14.152 .000
211.999 -14.142 .000
213.732 -14.115 .000
215.466 -14.087 .000
217.200 -14.068 .000
218.933 -14.044 .000
220.667 -14.027 .000
222.400 -14.012 .000
224.134 -13.994 .000
225.868 -13.974 .000
227.601 -13.952 .000
229.335 -13.924 .000
231.069 -13.898 .000
232.802 -13.882 .000
234.536 -100.000 .000
234.536 -15.830 .000
234.536 -17.787 .000
234.536 -19.745 .000
234.536 -21.702 .000
234.536 -23.659 .000
234.536 -25.617 .000
234.536 -27.574 .000
234.536 -29.532 .000
234.536 -31.489 .000
234.536 -33.447 .000
234.536 -35.404 .000
234.536 -37.362 .000
234.536 -39.319 .000
234.536 -41.277 .000
234.536 -43.234 .000
234.536 -45.191 .000
234.536 -47.149 .000
234.536 -49.106 .000
234.536 -51.064 .000
234.536 -53.021 .000
234.536 -54.979 .000
234.536 -56.936 .000
234.536 -58.894 .000
234.536 -60.851 .000
234.536 -62.808 .000
234.536 -64.766 .000
234.536 -66.723 .000
234.536 -68.681 .000
234.536 -70.638 .000
234.536 -72.596 .000
234.536 -74.553 .000
234.536 -76.511 .000
234.536 -78.468 .000
234.536 -80.425 .000
234.536 -82.383 .000
234.536 -84.340 .000
234.536 -86.298 .000
234.536 -88.255 .000
234.536 -90.213 .000
234.536 -92.170 .000
234.536 -94.128 .000
234.536 -96.085 .000
234.536 -98.043 .000
1.712 -100.000 .000
3.424 -100.000 .000
5.136 -100.000 .000
6.848 -100.000 .000
8.560 -100.000 .000
10.272 -100.000 .000
11.984 -100.000 .000
13.696 -100.000 .000
15.407 -100.000 .000
17.119 -100.000 .000
18.831 -100.000 .000
20.543 -100.000 .000
22.255 -100.000 .000
23.967 -100.000 .000
25.679 -100.000 .000
27.391 -100.000 .000
29.103 -100.000 .000
30.815 -100.000 .000
32.527 -100.000 .000
34.239 -100.000 .000
35.951 -100.000 .000
37.663 -100.000 .000
39.375 -100.000 .000
41.087 -100.000 .000
42.799 -100.000 .000
44.510 -100.000 .000
46.222 -100.000 .000
47.934 -100.000 .000
49.646 -100.000 .000
51.358 -100.000 .000
53.070 -100.000 .000
54.782 -100.000 .000
56.494 -100.000 .000
58.206 -100.000 .000
59.918 -100.000 .000
61.630 -100.000 .000
63.342 -100.000 .000
65.054 -100.000 .000
66.766 -100.000 .000
68.478 -100.000 .000
70.190 -100.000 .000
71.902 -100.000 .000
73.613 -100.000 .000
75.325 -100.000 .000
77.037 -100.000 .000
78.749 -100.000 .000
80.461 -100.000 .000
82.173 -100.000 .000
83.885 -100.000 .000
85.597 -100.000 .000
87.309 -100.000 .000
89.021 -100.000 .000
90.733 -100.000 .000
92.445 -100.000 .000
94.157 -100.000 .000
95.869 -100.000 .000
97.581 -100.000 .000
99.293 -100.000 .000
101.005 -100.000 .000
102.716 -100.000 .000
104.428 -100.000 .000
106.140 -100.000 .000
107.852 -100.000 .000
109.564 -100.000 .000
111.276 -100.000 .000
112.988 -100.000 .000
114.700 -100.000 .000
116.412 -100.000 .000
118.124 -100.000 .000
119.836 -100.000 .000
121.548 -100.000 .000
123.260 -100.000 .000
124.972 -100.000 .000
126.684 -100.000 .000
128.396 -100.000 .000
130.108 -100.000 .000
131.820 -100.000 .000
133.531 -100.000 .000
135.243 -100.000 .000
136.955 -100.000 .000
138.667 -100.000 .000
140.379 -100.000 .000
142.091 -100.000 .000
143.803 -100.000 .000
145.515 -100.000 .000
147.227 -100.000 .000
148.939 -100.000 .000
150.651 -100.000 .000
152.363 -100.000 .000
154.075 -100.000 .000
155.787 -100.000 .000
157.499 -100.000 .000
159.211 -100.000 .000
160.923 -100.000 .000
162.635 -100.000 .000
164.346 -100.000 .000
166.058 -100.000 .000
167.770 -100.000 .000
169.482 -100.000 .000
171.194 -100.000 .000
172.906 -100.000 .000
174.618 -100.000 .000
176.330 -100.000 .000
178.042 -100.000 .000
179.754 -100.000 .000
181.466 -100.000 .000
183.178 -100.000 .000
184.890 -100.000 .000
186.602 -100.000 .000
188.314 -100.000 .000
190.025 -100.000 .000
191.738 -100.000 .000
193.449 -100.000 .000
195.161 -100.000 .000
196.873 -100.000 .000
198.585 -100.000 .000
200.297 -100.000 .000
202.009 -100.000 .000
203.721 -100.000 .000
205.433 -100.000 .000
207.145 -100.000 .000
208.857 -100.000 .000
210.569 -100.000 .000
212.281 -100.000 .000
213.993 -100.000 .000
215.705 -100.000 .000
217.417 -100.000 .000
219.129 -100.000 .000
220.840 -100.000 .000
222.552 -100.000 .000
224.264 -100.000 .000
225.976 -100.000 .000
227.688 -100.000 .000
229.400 -100.000 .000
231.112 -100.000 .000
232.824 -100.000 .000
98.611 -42.308 .000
99.117 -44.615 .000
99.624 -46.923 .000
100.131 -49.231 .000
100.637 -51.538 .000
101.144 -53.846 .000
101.650 -56.154 .000
102.157 -58.462 .000
102.664 -60.769 .000
103.170 -63.077 .000
103.677 -65.385 .000
104.183 -67.692 .000
104.690 -70.000 .000
105.197 -72.308 .000
105.703 -74.615 .000
106.210 -76.923 .000
106.717 -79.231 .000
107.223 -81.538 .000
107.730 -83.846 .000
108.237 -86.154 .000
108.743 -88.462 .000
109.250 -90.769 .000
109.756 -93.077 .000
110.263 -95.385 .000
110.770 -97.692 .000
109.066 -97.692 .000
107.363 -97.695 .000
105.659 -97.697 .000
103.956 -97.699 .000
102.252 -97.703 .000
100.548 -97.708 .000
98.844 -97.713 .000
97.139 -97.716 .000
95.435 -97.721 .000
93.731 -97.729 .000
92.026 -97.737 .000
90.322 -97.743 .000
88.618 -97.747 .000
86.914 -97.749 .000
85.210 -97.750 .000
83.506 -97.750 .000
81.802 -97.749 .000
80.099 -97.750 .000
78.394 -97.753 .000
76.690 -97.756 .000
74.986 -97.757 .000
73.282 -97.760 .000
71.578 -97.764 .000
69.874 -97.767 .000
68.170 -97.769 .000
66.466 -97.770 .000
64.762 -97.773 .000
63.057 -97.778 .000
61.353 -97.783 .000
59.649 -97.786 .000
57.945 -97.788 .000
56.241 -97.789 .000
54.537 -97.792 .000
52.833 -97.795 .000
51.129 -97.798 .000
49.425 -97.799 .000
47.721 -97.801 .000
46.016 -97.805 .000
44.312 -97.810 .000
42.608 -97.815 .000
40.903 -97.821 .000
39.199 -97.829 .000
37.495 -97.834 .000
35.791 -97.837 .000
34.086 -97.841 .000
32.382 -97.848 .000
30.678 -97.854 .000
28.973 -97.859 .000
27.269 -97.864 .000
25.565 -97.869 .000
23.860 -97.874 .000
22.156 -97.878 .000
20.452 -97.882 .000
18.748 -97.887 .000
17.043 -97.893 .000
15.339 -97.898 .000
[...]
POINT_DATA 7457
VECTORS displacements double
.000000 .000000 .000000
.000000 .000000 .000000
.000000 .000000 .000000
.000000 .000000 .000000
.000000 .000000 .000000
.000000 .000000 .000000
.000000 .000000 .000000
.000000 .000000 .000000
.000000 .000000 .000000
.000000 .000000 .000000
.000000 .000000 .000000
.000000 .000000 .000000
.000000 .000000 .000000
.000000 .000000 .000000
.000000 .000000 .000000
.000000 .000000 .000000
.000000 .000000 .000000
.000000 .000000 .000000
.000000 .000000 .000000
.000000 .000000 .000000
.000000 .000000 .000000
.000000 .000000 .000000
.000000 .000000 .000000
.000000 .000000 .000000
.000000 .000000 .000000
.000000 .000000 .000000
.000000 .000000 .000000
.000000 .000000 .000000
.000000 .000000 .000000
.000000 .000000 .000000
.000000 .000000 .000000
.000000 .000000 .000000
.000000 .000000 .000000
.000000 .000000 .000000
.000000 .000000 .000000
.000000 .000000 .000000
.000000 .000000 .000000
.000000 .000000 .000000
.000000 .000000 .000000
.000000 .000000 .000000
.000000 .000000 .000000
.000000 .000000 .000000
.000000 .000000 .000000
.000000 .000000 .000000
.000000 .000000 .000000
.000000 .000000 .000000
.035378 .002716 .000000
.000048 -.000390 .000000
.000148 -.000764 .000000
.000288 -.001112 .000000
.000459 -.001427 .000000
.000654 -.001704 .000000
.000864 -.001942 .000000
.001083 -.002141 .000000
.001309 -.002311 .000000
.001537 -.002449 .000000
.001767 -.002559 .000000
.001999 -.002647 .000000
.002233 -.002717 .000000
.002467 -.002763 .000000
.002703 -.002792 .000000
.002945 -.002815 .000000
.003191 -.002830 .000000
.003442 -.002836 .000000
.003698 -.002837 .000000
.003962 -.002837 .000000
.004232 -.002833 .000000
.004504 -.002808 .000000
.004780 -.002773 .000000
.005068 -.002748 .000000
.005370 -.002735 .000000
.005678 -.002710 .000000
.005993 -.002672 .000000
.006321 -.002634 .000000
.006656 -.002581 .000000
.006996 -.002508 .000000
.007344 -.002428 .000000
.007707 -.002353 .000000
.008085 -.002286 .000000
.008472 -.002211 .000000
.008866 -.002125 .000000
.009275 -.002047 .000000
.009707 -.001990 .000000
.010164 -.001953 .000000
.010641 -.001921 .000000
.011131 -.001880 .000000
.011626 -.001820 .000000
.012141 -.001766 .000000
.012697 -.001747 .000000
.013285 -.001745 .000000
.013888 -.001730 .000000
.014513 -.001711 .000000
.015191 -.001722 .000000
.015908 -.001737 .000000
.016646 -.001726 .000000
.017413 -.001690 .000000
.018253 -.001666 .000000
.019192 -.001653 .000000
.020263 -.001646 .000000
.021515 -.001636 .000000
.022995 -.001603 .000000
.024754 -.001498 .000000
.026835 -.001198 .000000
.029282 -.000525 .000000
.032167 .000692 .000000
.007562 -.005956 .000000
.037171 .003577 .000000
.039065 .006500 .000000
.040186 .010997 .000000
.039285 .017080 .000000
.030102 .019059 .000000
-.002101 -.003708 .000000
-.001697 -.004081 .000000
-.001242 -.004425 .000000
-.000813 -.004756 .000000
-.000405 -.005075 .000000
-.000013 -.005381 .000000
.000368 -.005679 .000000
.000740 -.005974 .000000
.001101 -.006271 .000000
.001447 -.006574 .000000
.001770 -.006886 .000000
.002057 -.007206 .000000
.002296 -.007530 .000000
.002468 -.007852 .000000
.002558 -.008151 .000000
.002562 -.008391 .000000
.002513 -.008498 .000000
.002562 -.008334 .000000
.003213 -.007585 .000000
-.001783 -.007605 .000000
-.001990 -.007258 .000000
-.002085 -.006767 .000000
-.002147 -.006231 .000000
-.002188 -.005664 .000000
-.002208 -.005064 .000000
-.002196 -.004427 .000000
-.001815 -.003730 .000000
-.001577 -.007935 .000000
-.001201 -.008239 .000000
-.000802 -.008524 .000000
-.000398 -.008795 .000000
.000006 -.009054 .000000
.000408 -.009302 .000000
.000806 -.009535 .000000
.001202 -.009749 .000000
.001600 -.009933 .000000
.002006 -.010068 .000000
.002424 -.010116 .000000
.002844 -.010013 .000000
.003220 -.009665 .000000
.003426 -.008965 .000000
.003239 -.007859 .000000
.002392 -.006425 .000000
.000722 -.004942 .000000
.000000 .000000 .000000
-.002549 -.002452 .000000
-.002999 -.001241 .000000
-.003524 -.000155 .000000
-.004043 .000775 .000000
-.004458 .001536 .000000
-.004778 .002136 .000000
-.005079 .002599 .000000
-.005311 .002921 .000000
-.005465 .003125 .000000
-.005591 .003243 .000000
-.005670 .003286 .000000
-.005715 .003271 .000000
-.005730 .003212 .000000
-.005711 .003115 .000000
-.005664 .002988 .000000
-.005602 .002841 .000000
-.005528 .002681 .000000
-.005443 .002513 .000000
-.005346 .002342 .000000
-.005235 .002168 .000000
-.005113 .001997 .000000
-.004985 .001832 .000000
-.004865 .001676 .000000
-.004753 .001524 .000000
-.004635 .001373 .000000
-.004500 .001229 .000000
-.004358 .001097 .000000
-.004223 .000975 .000000
-.004096 .000861 .000000
-.003969 .000752 .000000
-.003842 .000650 .000000
-.003719 .000555 .000000
-.003600 .000465 .000000
-.003481 .000377 .000000
-.003358 .000294 .000000
-.003233 .000217 .000000
-.003110 .000145 .000000
-.002988 .000078 .000000
-.002867 .000016 .000000
-.002749 -.000042 .000000
-.002633 -.000097 .000000
-.002516 -.000150 .000000
-.002396 -.000198 .000000
-.002275 -.000241 .000000
-.002155 -.000279 .000000
-.002034 -.000312 .000000
-.001913 -.000339 .000000
-.001791 -.000360 .000000
-.001670 -.000375 .000000
-.001549 -.000385 .000000
-.001428 -.000387 .000000
-.001306 -.000383 .000000
-.001186 -.000372 .000000
-.001066 -.000355 .000000
-.000946 -.000330 .000000
-.000828 -.000298 .000000
-.000712 -.000261 .000000
-.000600 -.000218 .000000
-.000492 -.000171 .000000
-.000389 -.000123 .000000
-.000293 -.000075 .000000
-.000205 -.000031 .000000
-.000127 .000004 .000000
-.000058 .000021 .000000
.000000 .000000 .000000
.000000 .000000 .000000
.000000 .000000 .000000
.000000 .000000 .000000
.000000 .000000 .000000
.000000 .000000 .000000
.000000 .000000 .000000
.000000 .000000 .000000
.000000 .000000 .000000
.000000 .000000 .000000
.000000 .000000 .000000
.000000 .000000 .000000
.000000 .000000 .000000
.000000 .000000 .000000
.000000 .000000 .000000
.000000 .000000 .000000
.000000 .000000 .000000
.000000 .000000 .000000
.000000 .000000 .000000
.000000 .000000 .000000
.000000 .000000 .000000
.000000 .000000 .000000
.000000 .000000 .000000
.000000 .000000 .000000
.000000 .000000 .000000
.000000 .000000 .000000
.000000 .000000 .000000
.000000 .000000 .000000
.000000 .000000 .000000
.000000 .000000 .000000
.000000 .000000 .000000
.000000 .000000 .000000
.000000 .000000 .000000
.000000 .000000 .000000
.000000 .000000 .000000
.000000 .000000 .000000
.000000 .000000 .000000
.000000 .000000 .000000
.000000 .000000 .000000
.000000 .000000 .000000
.000000 .000000 .000000
.000000 .000000 .000000
.000000 .000000 .000000
.000000 .000000 .000000
.000000 .000000 .000000
.000000 .000000 .000000
.000000 .000000 .000000
.000000 .000000 .000000
.000000 .000000 .000000
.000000 .000000 .000000
.000000 .000000 .000000
.000000 .000000 .000000
.000000 .000000 .000000
.000000 .000000 .000000
.000000 .000000 .000000
.000000 .000000 .000000
.000000 .000000 .000000
.000000 .000000 .000000
.000000 .000000 .000000
.000000 .000000 .000000
.000000 .000000 .000000
.000000 .000000 .000000
.000000 .000000 .000000
.000000 .000000 .000000
.000000 .000000 .000000
.000000 .000000 .000000
.000000 .000000 .000000
.000000 .000000 .000000
.000000 .000000 .000000
.000000 .000000 .000000
.000000 .000000 .000000
.000000 .000000 .000000
.000000 .000000 .000000
.000000 .000000 .000000
.000000 .000000 .000000
.000000 .000000 .000000
.000000 .000000 .000000
.000000 .000000 .000000
.000000 .000000 .000000
.000000 .000000 .000000
.000000 .000000 .000000
.000000 .000000 .000000
.000000 .000000 .000000
.000000 .000000 .000000
.000000 .000000 .000000
.000000 .000000 .000000
.000000 .000000 .000000
.000000 .000000 .000000
.000000 .000000 .000000
.000000 .000000 .000000
.000000 .000000 .000000
.000000 .000000 .000000
.000000 .000000 .000000
.000000 .000000 .000000
.000000 .000000 .000000
.000000 .000000 .000000
.000000 .000000 .000000
.000000 .000000 .000000
.000000 .000000 .000000
.000000 .000000 .000000
.000000 .000000 .000000
.000000 .000000 .000000
.000000 .000000 .000000
.000000 .000000 .000000
.000000 .000000 .000000
.000000 .000000 .000000
.000000 .000000 .000000
.000000 .000000 .000000
.000000 .000000 .000000
.000000 .000000 .000000
.000000 .000000 .000000
.000000 .000000 .000000
.000000 .000000 .000000
.000000 .000000 .000000
.000000 .000000 .000000
.000000 .000000 .000000
.000000 .000000 .000000
.000000 .000000 .000000
.000000 .000000 .000000
.000000 .000000 .000000
.000000 .000000 .000000
.000000 .000000 .000000
.000000 .000000 .000000
.000000 .000000 .000000
.000000 .000000 .000000
.000000 .000000 .000000
.000000 .000000 .000000
.000000 .000000 .000000
.000000 .000000 .000000
.000000 .000000 .000000
.000000 .000000 .000000
.000000 .000000 .000000
.000000 .000000 .000000
.000000 .000000 .000000
.000000 .000000 .000000
.000000 .000000 .000000
.000000 .000000 .000000
.000000 .000000 .000000
.000000 .000000 .000000
.000000 .000000 .000000
.000000 .000000 .000000
.000000 .000000 .000000
.000000 .000000 .000000
.000000 .000000 .000000
.000000 .000000 .000000
.000000 .000000 .000000
.000000 .000000 .000000
.000000 .000000 .000000
.000000 .000000 .000000
.000000 .000000 .000000
.000000 .000000 .000000
.000000 .000000 .000000
.000000 .000000 .000000
.000000 .000000 .000000
.000000 .000000 .000000
.000000 .000000 .000000
.000000 .000000 .000000
.000000 .000000 .000000
.000000 .000000 .000000
.000000 .000000 .000000
.000000 .000000 .000000
.000000 .000000 .000000
.000000 .000000 .000000
.000000 .000000 .000000
.000000 .000000 .000000
.000000 .000000 .000000
.000000 .000000 .000000
.000000 .000000 .000000
.000000 .000000 .000000
.000000 .000000 .000000
.000000 .000000 .000000
.000000 .000000 .000000
.000000 .000000 .000000
.000000 .000000 .000000
.000000 .000000 .000000
.000000 .000000 .000000
.000000 .000000 .000000
.000000 .000000 .000000
.000000 .000000 .000000
.000000 .000000 .000000
-.002045 -.004085 .000000
-.002004 -.004223 .000000
-.001919 -.004239 .000000
-.001812 -.004167 .000000
-.001699 -.004028 .000000
-.001587 -.003842 .000000
-.001482 -.003622 .000000
-.001384 -.003383 .000000
-.001293 -.003132 .000000
-.001209 -.002875 .000000
-.001128 -.002617 .000000
-.001051 -.002362 .000000
-.000976 -.002110 .000000
-.000901 -.001864 .000000
-.000827 -.001625 .000000
-.000752 -.001396 .000000
-.000676 -.001176 .000000
-.000600 -.000969 .000000
-.000522 -.000774 .000000
-.000443 -.000596 .000000
-.000364 -.000435 .000000
-.000285 -.000294 .000000
-.000207 -.000176 .000000
-.000132 -.000085 .000000
-.000062 -.000025 .000000
-.000091 -.000025 .000000
-.000119 -.000024 .000000
-.000146 -.000024 .000000
-.000173 -.000023 .000000
-.000199 -.000022 .000000
-.000223 -.000021 .000000
-.000246 -.000020 .000000
-.000268 -.000018 .000000
-.000288 -.000017 .000000
-.000306 -.000015 .000000
-.000321 -.000013 .000000
-.000335 -.000011 .000000
-.000348 -.000010 .000000
-.000358 -.000008 .000000
-.000367 -.000006 .000000
-.000374 -.000004 .000000
-.000379 -.000002 .000000
-.000382 -.000001 .000000
-.000382 .000001 .000000
-.000381 .000003 .000000
-.000379 .000004 .000000
-.000374 .000006 .000000
-.000369 .000007 .000000
-.000362 .000008 .000000
-.000354 .000009 .000000
-.000345 .000010 .000000
-.000335 .000011 .000000
-.000323 .000012 .000000
-.000312 .000013 .000000
-.000300 .000014 .000000
-.000287 .000014 .000000
-.000275 .000015 .000000
-.000262 .000015 .000000
-.000248 .000016 .000000
-.000235 .000016 .000000
-.000222 .000016 .000000
-.000209 .000016 .000000
-.000196 .000016 .000000
-.000182 .000016 .000000
-.000169 .000016 .000000
-.000156 .000016 .000000
-.000144 .000016 .000000
-.000131 .000016 .000000
-.000120 .000016 .000000
-.000108 .000016 .000000
-.000097 .000016 .000000
-.000086 .000016 .000000
-.000075 .000016 .000000
-.000065 .000016 .000000
-.000056 .000015 .000000
-.000047 .000015 .000000
-.000038 .000015 .000000
-.000030 .000014 .000000
-.000022 .000014 .000000
-.000015 .000014 .000000
-.000009 .000013 .000000
-.000003 .000013 .000000
.000002 .000012 .000000
.000006 .000012 .000000
.000009 .000011 .000000
.000011 .000010 .000000
.000011 .000010 .000000
.000010 .000009 .000000
.000007 .000008 .000000
-.000185 -.000085 .000000
-.000237 -.000083 .000000
-.000287 -.000081 .000000
-.000337 -.000078 .000000
-.000384 -.000075 .000000
-.000429 -.000071 .000000
-.000471 -.000066 .000000
-.000511 -.000062 .000000
-.000547 -.000056 .000000
-.000580 -.000050 .000000
-.000609 -.000044 .000000
-.000634 -.000038 .000000
-.000656 -.000032 .000000
-.000675 -.000026 .000000
-.000691 -.000020 .000000
-.000703 -.000014 .000000
-.000712 -.000008 .000000
-.000717 -.000003 .000000
-.000717 .000003 .000000
-.000715 .000008 .000000
-.000710 .000013 .000000
-.000702 .000018 .000000
-.000691 .000022 .000000
-.000678 .000026 .000000
-.000663 .000029 .000000
-.000646 .000033 .000000
-.000627 .000035 .000000
-.000607 .000038 .000000
-.000585 .000040 .000000
-.000563 .000042 .000000
-.000540 .000043 .000000
-.000516 .000045 .000000
-.000492 .000046 .000000
-.000467 .000047 .000000
-.000443 .000047 .000000
-.000418 .000048 .000000
-.000394 .000048 .000000
-.000369 .000048 .000000
-.000344 .000048 .000000
-.000320 .000048 .000000
-.000296 .000048 .000000
-.000272 .000047 .000000
-.000250 .000047 .000000
-.000228 .000046 .000000
-.000206 .000045 .000000
-.000185 .000045 .000000
-.000165 .000044 .000000
-.000145 .000043 .000000
-.000126 .000042 .000000
-.000109 .000041 .000000
-.000092 .000040 .000000
-.000076 .000039 .000000
-.000060 .000038 .000000
-.000046 .000037 .000000
-.000033 .000035 .000000
-.000022 .000033 .000000
-.000011 .000031 .000000
-.000003 .000029 .000000
.000005 .000027 .000000
.000010 .000025 .000000
.000013 .000022 .000000
.000014 .000019 .000000
.000012 .000015 .000000
.000007 .000010 .000000
-.000280 -.000175 .000000
-.000353 -.000171 .000000
-.000423 -.000167 .000000
-.000491 -.000161 .000000
-.000557 -.000153 .000000
-.000619 -.000145 .000000
-.000678 -.000135 .000000
-.000732 -.000125 .000000
-.000782 -.000114 .000000
-.000826 -.000102 .000000
-.000866 -.000090 .000000
-.000900 -.000077 .000000
-.000930 -.000065 .000000
-.000956 -.000052 .000000
-.000977 -.000040 .000000
-.000993 -.000028 .000000
-.001004 -.000016 .000000
-.001010 -.000005 .000000
-.001011 .000006 .000000
-.001006 .000017 .000000
-.000999 .000027 .000000
-.000987 .000036 .000000
-.000971 .000044 .000000
-.000953 .000052 .000000
-.000932 .000059 .000000
-.000908 .000065 .000000
-.000881 .000071 .000000
-.000853 .000075 .000000
-.000822 .000079 .000000
-.000791 .000083 .000000
-.000759 .000086 .000000
-.000726 .000088 .000000
-.000692 .000090 .000000
-.000658 .000091 .000000
-.000623 .000092 .000000
-.000589 .000093 .000000
-.000555 .000093 .000000
-.000520 .000093 .000000
-.000486 .000093 .000000
-.000452 .000092 .000000
-.000419 .000091 .000000
-.000386 .000090 .000000
-.000354 .000089 .000000
-.000323 .000088 .000000
-.000293 .000086 .000000
-.000264 .000084 .000000
-.000236 .000083 .000000
-.000209 .000081 .000000
-.000183 .000079 .000000
-.000158 .000076 .000000
-.000134 .000074 .000000
-.000112 .000072 .000000
-.000091 .000069 .000000
-.000071 .000066 .000000
-.000054 .000062 .000000
-.000037 .000059 .000000
-.000023 .000055 .000000
-.000011 .000051 .000000
-.000001 .000046 .000000
.000006 .000040 .000000
.000011 .000035 .000000
.000013 .000028 .000000
.000012 .000021 .000000
.000007 .000012 .000000
-.000376 -.000291 .000000
-.000466 -.000284 .000000
-.000553 -.000276 .000000
-.000638 -.000266 .000000
-.000718 -.000253 .000000
-.000795 -.000238 .000000
-.000867 -.000222 .000000
-.000934 -.000205 .000000
-.000995 -.000186 .000000
-.001049 -.000166 .000000
-.001096 -.000146 .000000
-.001138 -.000125 .000000
-.001174 -.000104 .000000
-.001204 -.000084 .000000
-.001229 -.000063 .000000
-.001247 -.000043 .000000
-.001260 -.000024 .000000
-.001266 -.000005 .000000
-.001265 .000013 .000000
-.001259 .000030 .000000
-.001249 .000046 .000000
-.001234 .000060 .000000
-.001213 .000074 .000000
-.001189 .000086 .000000
-.001163 .000097 .000000
-.001133 .000107 .000000
-.001100 .000116 .000000
-.001063 .000123 .000000
-.001025 .000129 .000000
-.000986 .000135 .000000
-.000946 .000139 .000000
-.000905 .000143 .000000
-.000864 .000146 .000000
-.000821 .000148 .000000
-.000778 .000149 .000000
-.000735 .000150 .000000
-.000693 .000150 .000000
-.000650 .000150 .000000
-.000608 .000149 .000000
-.000566 .000148 .000000
-.000525 .000146 .000000
-.000484 .000144 .000000
-.000445 .000141 .000000
-.000407 .000139 .000000
-.000370 .000136 .000000
-.000334 .000133 .000000
-.000299 .000130 .000000
-.000265 .000127 .000000
-.000233 .000123 .000000
-.000202 .000119 .000000
-.000173 .000115 .000000
-.000146 .000111 .000000
-.000120 .000106 .000000
-.000096 .000101 .000000
-.000074 .000095 .000000
-.000054 .000089 .000000
-.000036 .000082 .000000
-.000021 .000075 .000000
-.000009 .000067 .000000
.000001 .000058 .000000
.000007 .000049 .000000
.000010 .000038 .000000
.000010 .000027 .000000
.000006 .000014 .000000
-.000471 -.000429 .000000
-.000575 -.000419 .000000
-.000677 -.000406 .000000
-.000775 -.000389 .000000
-.000869 -.000370 .000000
-.000957 -.000348 .000000
-.001040 -.000324 .000000
-.001117 -.000298 .000000
-.001187 -.000270 .000000
-.001248 -.000240 .000000
-.001302 -.000209 .000000
-.001349 -.000178 .000000
-.001390 -.000148 .000000
-.001423 -.000118 .000000
-.001450 -.000088 .000000
-.001469 -.000059 .000000
-.001482 -.000030 .000000
-.001488 -.000003 .000000
-.001485 .000023 .000000
-.001477 .000047 .000000
-.001463 .000070 .000000
-.001444 .000092 .000000
-.001419 .000111 .000000
-.001390 .000128 .000000
-.001358 .000144 .000000
-.001323 .000158 .000000
-.001283 .000171 .000000
-.001241 .000181 .000000
-.001196 .000190 .000000
-.001150 .000197 .000000
-.001104 .000203 .000000
-.001056 .000209 .000000
-.001007 .000212 .000000
-.000957 .000215 .000000
-.000907 .000216 .000000
-.000858 .000217 .000000
-.000809 .000217 .000000
-.000759 .000216 .000000
-.000710 .000215 .000000
-.000661 .000212 .000000
-.000614 .000209 .000000
-.000567 .000206 .000000
-.000521 .000202 .000000
-.000477 .000199 .000000
-.000435 .000195 .000000
-.000393 .000190 .000000
-.000353 .000185 .000000
-.000314 .000180 .000000
-.000277 .000174 .000000
-.000241 .000168 .000000
-.000208 .000162 .000000
-.000176 .000156 .000000
-.000146 .000149 .000000
-.000119 .000141 .000000
-.000093 .000132 .000000
-.000070 .000123 .000000
-.000050 .000113 .000000
-.000032 .000103 .000000
-.000017 .000091 .000000
-.000005 .000078 .000000
.000003 .000065 .000000
.000007 .000050 .000000
.000008 .000034 .000000
.000006 .000017 .000000
-.000563 -.000586 .000000
-.000681 -.000571 .000000
-.000795 -.000552 .000000
-.000905 -.000529 .000000
-.001010 -.000501 .000000
-.001108 -.000470 .000000
-.001200 -.000436 .000000
-.001285 -.000399 .000000
-.001361 -.000360 .000000
-.001428 -.000319 .000000
-.001487 -.000277 .000000
-.001537 -.000235 .000000
-.001580 -.000193 .000000
-.001616 -.000152 .000000
-.001643 -.000111 .000000
-.001663 -.000072 .000000
-.001674 -.000033 .000000
-.001678 .000003 .000000
-.001673 .000038 .000000
-.001662 .000071 .000000
-.001645 .000102 .000000
-.001621 .000130 .000000
-.001592 .000155 .000000
-.001558 .000179 .000000
-.001521 .000200 .000000
-.001480 .000218 .000000
-.001435 .000234 .000000
-.001387 .000248 .000000
-.001336 .000259 .000000
-.001284 .000268 .000000
-.001232 .000276 .000000
-.001178 .000283 .000000
-.001123 .000287 .000000
-.001068 .000290 .000000
-.001012 .000292 .000000
-.000957 .000293 .000000
-.000902 .000293 .000000
-.000847 .000291 .000000
-.000792 .000288 .000000
-.000738 .000285 .000000
-.000686 .000281 .000000
-.000634 .000276 .000000
-.000583 .000270 .000000
-.000535 .000265 .000000
-.000488 .000259 .000000
-.000442 .000253 .000000
-.000397 .000246 .000000
-.000354 .000238 .000000
-.000313 .000231 .000000
-.000274 .000223 .000000
-.000237 .000214 .000000
-.000202 .000205 .000000
-.000170 .000195 .000000
-.000139 .000185 .000000
-.000111 .000173 .000000
-.000085 .000161 .000000